 Gaussian 16, Revision B.01,
 Gaussian 16:  EM64L-G16RevB.01 20-Dec-2017

 --------------------------------------------------------
 # opt=(calcfc,ts) freq=noraman b3lyp/6-311+g(d,p) scf=qc
 --------------------------------------------------------

 ----------------
 BrCH3Cl_6311G_dp
 ----------------
 Symbolic Z-matrix:
 Charge = -1 Multiplicity = 1

 SCF Done:  E(RB3LYP) =  -3074.31777305     a.u. after    9 cycles
 SCF Done:  E(RB3LYP) =  -3074.34709352     a.u. after  229 cycles
 SCF Done:  E(RB3LYP) =  -3074.36445143     a.u. after  190 cycles
 SCF Done:  E(RB3LYP) =  -3074.37397227     a.u. after  140 cycles
 SCF Done:  E(RB3LYP) =  -3074.38148429     a.u. after  166 cycles
 SCF Done:  E(RB3LYP) =  -3074.38626701     a.u. after   64 cycles
 SCF Done:  E(RB3LYP) =  -3074.38689628     a.u. after   53 cycles
 SCF Done:  E(RB3LYP) =  -3074.38695686     a.u. after    3 cycles
 SCF Done:  E(RB3LYP) =  -3074.38696074     a.u. after    3 cycles
 SCF Done:  E(RB3LYP) =  -3074.38696124     a.u. after    3 cycles
 Optimization completed.
    -- Stationary point found.
 Normal termination of Gaussian 16 at Sun Nov 14 01:59:03 2021.

 ----------------------------------------------------------------------
 #N Geom=AllCheck Guess=TCheck SCRF=Check GenChk RB3LYP/6-311+G(d,p) Fr
 eq
 ----------------------------------------------------------------------

 Structure from the checkpoint file:  "brch3cl.chk"
 ----------------
 BrCH3Cl_6311G_dp
 ----------------
 Charge = -1 Multiplicity = 1

                         Standard orientation:
 ---------------------------------------------------------------------
 Center     Atomic      Atomic             Coordinates (Angstroms)
 Number     Number       Type             X           Y           Z
 ---------------------------------------------------------------------
      1          6           0       -0.742531   -0.000001   -0.000202
      2          1           0       -0.770865   -0.928425    0.534795
      3          1           0       -0.770864    0.927558    0.536294
      4          1           0       -0.770846    0.000865   -1.071743
      5         35           0        1.730539    0.000000    0.000026
      6         17           0       -3.164771    0.000000    0.000056
 ---------------------------------------------------------------------

 SCF Done:  E(RB3LYP) =  -3074.38696124     a.u. after    1 cycles

 The electronic state is 1-A.
 Alpha  occ. eigenvalues -- -482.62026-101.31662 -62.27329 -56.09216 -56.09047
 Alpha  occ. eigenvalues --  -56.09047 -10.09088  -9.22978  -8.48216  -6.99057
 Alpha  occ. eigenvalues --   -6.98673  -6.98673  -6.30866  -6.30310  -6.30310
 Alpha  occ. eigenvalues --   -2.42035  -2.41883  -2.41883  -2.41443  -2.41443
 Alpha  occ. eigenvalues --   -0.59966  -0.56537  -0.52413  -0.30883  -0.30883
 Alpha  occ. eigenvalues --   -0.17425  -0.11024  -0.11024  -0.10412  -0.10412
 Alpha  occ. eigenvalues --   -0.09563
 Alpha virt. eigenvalues --    0.09229   0.12731   0.15879   0.16493   0.16493
 Alpha virt. eigenvalues --    0.17886   0.19758   0.19758   0.21427   0.23119
 Alpha virt. eigenvalues --    0.23120   0.28097   0.28097   0.28470   0.33048

 Mulliken charges:
               1
     1  C   -0.421867
     2  H    0.211149
     3  H    0.211149
     4  H    0.211130
     5  Br  -0.633711
     6  Cl  -0.577851
 Sum of Mulliken charges =  -1.00000

 Dipole moment (field-independent basis, Debye):
    X=              3.8642    Y=             -0.0000    Z=             -0.0005  Tot=              3.8642
 Quadrupole moment (field-independent basis, Debye-Ang):
   XX=            -87.5760   YY=            -43.8285   ZZ=            -43.8287
   XY=              0.0000   XZ=              0.0007   YZ=              0.0000

  Exact polarizability: 150.410   0.000  44.103   0.000  -0.000  44.106
 Approx polarizability: 213.740   0.000  55.459  -0.000  -0.000  55.459

 ******    1 imaginary frequencies (negative Signs) ******

                      1                      2                      3
                      A                      A                      A
 Frequencies --   -315.4691               166.6648               172.0150
 Red. masses --     12.5249                37.1306                 4.2018
 Frc consts  --      0.7344                 0.6077                 0.0733
 IR Inten    --   1087.7889                 3.9534                10.8718

                      4                      5                      6
                      A                      A                      A
 Frequencies --    172.2612               871.3578               871.4086
 Red. masses --      4.2023                 1.0112                 1.0112
 Frc consts  --      0.0735                 0.4524                 0.4524
 IR Inten    --     10.8709                 0.0011                 0.0010

                      7                      8                      9
                      A                      A                      A
 Frequencies --    996.6295              1402.2594              1402.3220
 Red. masses --      1.0377                 1.1030                 1.1031
 Frc consts  --      0.6073                 1.2779                 1.2780
 IR Inten    --    165.8762                 4.8763                 4.8737

                     10                     11                     12
                      A                      A                      A
 Frequencies --   3188.9346              3386.9951              3387.0195
 Red. masses --      1.0079                 1.1226                 1.1226
 Frc consts  --      6.0391                 7.5877                 7.5879
 IR Inten    --      0.2773                 4.4646                 4.4698

 - Thermochemistry -
 -------------------
 Temperature   298.150 Kelvin.  Pressure   1.00000 Atm.
 Atom     1 has atomic number  6 and mass  12.00000

 Molecular mass:   128.91066 amu.
 Principal axes and moments of inertia in atomic units:
                           1         2         3
     Eigenvalues --    12.397112125.008372125.00869
           X            1.00000   0.00000   0.00000
           Y           -0.00000   1.00000  -0.00001
           Z           -0.00000   0.00001   1.00000
 This molecule is an asymmetric top.
 Rotational symmetry number  1.
 Rotational temperatures (Kelvin)      6.98662     0.04076     0.04076
 Rotational constants (GHZ):         145.57763     0.84929     0.84929
    1 imaginary frequencies ignored.
 Zero-point vibrational energy      95808.1 (Joules/Mol)
                                   22.89869 (Kcal/Mol)
 Warning -- explicit consideration of   3 degrees of freedom as
           vibrations may cause significant error
 Vibrational temperatures:    239.79   247.49   247.85  1253.69  1253.76
          (Kelvin)           1433.93  2017.54  2017.63  4588.17  4873.13
                             4873.17

 Zero-point correction=                           0.036491 (Hartree/Particle)
 Thermal correction to Energy=                    0.041323
 Thermal correction to Enthalpy=                  0.042267
 Thermal correction to Gibbs Free Energy=         0.007228
 Sum of electronic and zero-point Energies=          -3074.350470
 Sum of electronic and thermal Energies=             -3074.345639
 Sum of electronic and thermal Enthalpies=           -3074.344695
 Sum of electronic and thermal Free Energies=        -3074.379733

                     E (Thermal)             CV                S
                      KCal/Mol        Cal/Mol-Kelvin    Cal/Mol-Kelvin
 Total                   25.930             13.270             73.744
 Electronic               0.000              0.000              0.000
 Translational            0.889              2.981             40.475
 Rotational               0.889              2.981             25.529
 Vibrational             24.153              7.309              7.740
 Vibration     1          0.624              1.883              2.473
 Vibration     2          0.626              1.877              2.413
 Vibration     3          0.626              1.877              2.411

 Optimization completed.
    -- Stationary point found.
 Normal termination of Gaussian 16 at Sun Nov 14 01:59:31 2021.
