 Gaussian 16, Revision B.01,
 Gaussian 16:  EM64L-G16RevB.01 20-Dec-2017

 -------------------------------------------------------
 # irc=(calcfc,maxpoints=20,recalc=3) b3lyp/6-311+g(d,p)
 -------------------------------------------------------

 --------------------
 BrCH3Cl_6311G_dp_IRC
 --------------------
 Symbolic Z-matrix:
 Charge = -1 Multiplicity = 1

 SCF Done:  E(RB3LYP) =  -3074.37855011     A.U. after   12 cycles
 SCF Done:  E(RB3LYP) =  -3074.37852518     A.U. after   10 cycles
 SCF Done:  E(RB3LYP) =  -3074.37940342     A.U. after    9 cycles
 SCF Done:  E(RB3LYP) =  -3074.38107147     A.U. after    8 cycles
 SCF Done:  E(RB3LYP) =  -3074.38249878     A.U. after    8 cycles
 SCF Done:  E(RB3LYP) =  -3074.38370297     A.U. after    8 cycles
 SCF Done:  E(RB3LYP) =  -3074.38470250     A.U. after    9 cycles
 SCF Done:  E(RB3LYP) =  -3074.38553109     A.U. after    9 cycles
 SCF Done:  E(RB3LYP) =  -3074.38629977     A.U. after   10 cycles
 SCF Done:  E(RB3LYP) =  -3074.38725395     A.U. after   10 cycles
 SCF Done:  E(RB3LYP) =  -3074.39777012     A.U. after    9 cycles
 SCF Done:  E(RB3LYP) =  -3074.39868575     A.U. after    9 cycles
 SCF Done:  E(RB3LYP) =  -3074.39948407     A.U. after    9 cycles
 SCF Done:  E(RB3LYP) =  -3074.40017569     A.U. after    9 cycles
 SCF Done:  E(RB3LYP) =  -3074.40077063     A.U. after    9 cycles
 SCF Done:  E(RB3LYP) =  -3074.40127853     A.U. after    9 cycles
 SCF Done:  E(RB3LYP) =  -3074.40170831     A.U. after    9 cycles
 SCF Done:  E(RB3LYP) =  -3074.40206808     A.U. after    9 cycles
 SCF Done:  E(RB3LYP) =  -3074.40236488     A.U. after    8 cycles
 SCF Done:  E(RB3LYP) =  -3074.40260488     A.U. after    8 cycles

                          Input orientation:
 ---------------------------------------------------------------------
 Center     Atomic      Atomic             Coordinates (Angstroms)
 Number     Number       Type             X           Y           Z
 ---------------------------------------------------------------------
      1          6           0        1.220548    0.765231   -0.244775
      2          1           0        0.574509    0.892690   -1.103579
      3          1           0        0.760688    1.158416    0.652497
      4          1           0        1.502352   -0.271881   -0.117720
      5         35           0       -1.449949   -0.908898    0.290951
      6         17           0        2.771846    1.737465   -0.556274
 ---------------------------------------------------------------------

 Alpha  occ. eigenvalues -- -482.55453-101.41324 -62.20752 -56.02533 -56.02526
 Alpha  occ. eigenvalues --  -56.02526 -10.08607  -9.32742  -8.41621  -7.09120
 Alpha  occ. eigenvalues --   -7.08263  -7.08263  -6.23927  -6.23893  -6.23893
 Alpha  occ. eigenvalues --   -2.35165  -2.35154  -2.35154  -2.35126  -2.35126
 Alpha  occ. eigenvalues --   -0.71261  -0.54534  -0.48770  -0.30968  -0.30968
 Alpha  occ. eigenvalues --   -0.27530  -0.17836  -0.17836  -0.05320  -0.05182
 Alpha  occ. eigenvalues --   -0.05182
 Alpha virt. eigenvalues --    0.11294   0.13194   0.16497   0.16497   0.17497
 Alpha virt. eigenvalues --    0.18490   0.19509   0.19509   0.21668   0.22133
 Alpha virt. eigenvalues --    0.22133   0.27508   0.27509   0.27887   0.32211

 Mulliken charges:
               1
     1  C   -0.633303
     2  H    0.197597
     3  H    0.197562
     4  H    0.197597
     5  Br  -0.924700
     6  Cl  -0.034754
 Sum of Mulliken charges =  -1.00000

 Dipole moment (field-independent basis, Debye):
    X=              3.4150    Y=              2.1409    Z=             -0.6850  Tot=              4.0883
 Quadrupole moment (field-independent basis, Debye-Ang):
   XX=            -65.8573   YY=            -52.8715   ZZ=            -45.3285
   XY=            -13.4080   XZ=              4.2929   YZ=              2.6908

  Exact polarizability:   0.000   0.000   0.000   0.000   0.000   0.000
 Approx polarizability:  97.064  23.809  74.005  -7.623  -4.778  60.611

 Normal termination of Gaussian 16 at Wed Nov 17 15:54:54 2021.
