 Gaussian 16, Revision B.01,
 Gaussian 16:  EM64L-G16RevB.01 20-Dec-2017

 ----------------------------------------------------------
 # opt=maxcycles=2048 freq=noraman b3lyp/6-311g(d,p) scf=qc
 ----------------------------------------------------------

 --------------
 CH3Br_6311G_dp
 --------------
 Symbolic Z-matrix:
 Charge =  0 Multiplicity = 1

 SCF Done:  E(RB3LYP) =  -2614.07198180     a.u. after   13 cycles
 SCF Done:  E(RB3LYP) =  -2614.07342810     a.u. after    5 cycles
 SCF Done:  E(RB3LYP) =  -2614.07352471     a.u. after    3 cycles
 SCF Done:  E(RB3LYP) =  -2614.07353599     a.u. after    4 cycles
 Optimization completed.
    -- Stationary point found.
 Normal termination of Gaussian 16 at Sun Nov 14 01:40:48 2021.

 ----------------------------------------------------------------------
 #N Geom=AllCheck Guess=TCheck SCRF=Check GenChk RB3LYP/6-311G(d,p) Fre
 q
 ----------------------------------------------------------------------

 Structure from the checkpoint file:  "ch3br.chk"
 --------------
 CH3Br_6311G_dp
 --------------
 Charge =  0 Multiplicity = 1

                         Standard orientation:
 ---------------------------------------------------------------------
 Center     Atomic      Atomic             Coordinates (Angstroms)
 Number     Number       Type             X           Y           Z
 ---------------------------------------------------------------------
      1          6           0        0.000000   -0.000000   -1.540037
      2          1           0        0.000000    1.034681   -1.870336
      3          1           0        0.896060   -0.517340   -1.870336
      4          1           0       -0.896060   -0.517340   -1.870336
      5         35           0       -0.000000    0.000000    0.424321
 ---------------------------------------------------------------------

 SCF Done:  E(RB3LYP) =  -2614.07353599     a.u. after    1 cycles

 The electronic state is 1-A1.
 Alpha  occ. eigenvalues -- -482.82010 -62.47303 -56.29348 -56.28939 -56.28939
 Alpha  occ. eigenvalues --  -10.22745  -8.68248  -6.51416  -6.50074  -6.50074
 Alpha  occ. eigenvalues --   -2.62496  -2.62116  -2.62116  -2.61052  -2.61052
 Alpha  occ. eigenvalues --   -0.80768  -0.67810  -0.45153  -0.45153  -0.38938
 Alpha  occ. eigenvalues --   -0.28146  -0.28146
 Alpha virt. eigenvalues --   -0.01599   0.05318   0.09785   0.09785   0.25999
 Alpha virt. eigenvalues --    0.27072   0.27072   0.31077   0.31077   0.33979
 Alpha virt. eigenvalues --    0.44263   0.55110   0.55110   0.57346   0.62434

 Mulliken charges:
               1
     1  C   -0.381411
     2  H    0.159485
     3  H    0.159485
     4  H    0.159485
     5  Br  -0.097044
 Sum of Mulliken charges =   0.00000

 Dipole moment (field-independent basis, Debye):
    X=              0.0000    Y=              0.0000    Z=             -1.9671  Tot=              1.9671
 Quadrupole moment (field-independent basis, Debye-Ang):
   XX=            -25.9629   YY=            -25.9629   ZZ=            -22.1412
   XY=             -0.0000   XZ=             -0.0000   YZ=              0.0000

  Exact polarizability:  20.366  -0.000  20.366   0.000   0.000  38.262
 Approx polarizability:  28.151  -0.000  28.151  -0.000   0.000  55.479

                      1                      2                      3
                     A1                      E                      E
 Frequencies --    591.0077               964.9193               964.9194
 Red. masses --      5.9036                 1.1387                 1.1387
 Frc consts  --      1.2149                 0.6247                 0.6247
 IR Inten    --     13.0892                 6.9771                 6.9770

                      4                      5                      6
                     A1                      E                      E
 Frequencies --   1336.4666              1475.3499              1475.3499
 Red. masses --      1.1332                 1.0606                 1.0606
 Frc consts  --      1.1925                 1.3602                 1.3602
 IR Inten    --     24.3152                 7.2555                 7.2557

                      7                      8                      9
                     A1                      E                      E
 Frequencies --   3078.3944              3184.8058              3184.8059
 Red. masses --      1.0252                 1.1098                 1.1098
 Frc consts  --      5.7244                 6.6322                 6.6322
 IR Inten    --     17.7833                 3.6488                 3.6487

 - Thermochemistry -
 -------------------
 Temperature   298.150 Kelvin.  Pressure   1.00000 Atm.
 Atom     1 has atomic number  6 and mass  12.00000

 Molecular mass:    93.94181 amu.
 Principal axes and moments of inertia in atomic units:
                           1         2         3
     Eigenvalues --    11.55891 192.60110 192.60110
           X           -0.00000  -0.31117   0.95035
           Y            0.00000   0.95035   0.31117
           Z            1.00000  -0.00000   0.00000
 This molecule is a prolate symmetric top.
 Rotational symmetry number  3.
 Rotational temperatures (Kelvin)      7.49326     0.44971     0.44971
 Rotational constants (GHZ):         156.13422     9.37036     9.37036
 Zero-point vibrational energy      97232.6 (Joules/Mol)
                                   23.23915 (Kcal/Mol)
 Warning -- explicit consideration of   1 degrees of freedom as
           vibrations may cause significant error
 Vibrational temperatures:    850.33  1388.30  1388.30  1922.88  2122.70
          (Kelvin)           2122.70  4429.12  4582.23  4582.23

 Zero-point correction=                           0.037034 (Hartree/Particle)
 Thermal correction to Energy=                    0.040136
 Thermal correction to Enthalpy=                  0.041081
 Thermal correction to Gibbs Free Energy=         0.013158
 Sum of electronic and zero-point Energies=          -2614.036502
 Sum of electronic and thermal Energies=             -2614.033400
 Sum of electronic and thermal Enthalpies=           -2614.032455
 Sum of electronic and thermal Free Energies=        -2614.060378

                     E (Thermal)             CV                S
                      KCal/Mol        Cal/Mol-Kelvin    Cal/Mol-Kelvin
 Total                   25.186              8.142             58.768
 Electronic               0.000              0.000              0.000
 Translational            0.889              2.981             39.532
 Rotational               0.889              2.981             18.505
 Vibrational             23.408              2.180              0.730
 Vibration     1          0.948              1.051              0.465

 Optimization completed.
    -- Stationary point found.
 Normal termination of Gaussian 16 at Sun Nov 14 01:41:00 2021.
