 Gaussian 16, Revision B.01,
 Gaussian 16:  EM64L-G16RevB.01 20-Dec-2017

 ----------------------------------------------------------
 # opt=maxcycles=2048 freq=noraman b3lyp/6-311g(d,p) scf=qc
 ----------------------------------------------------------

 -----
 CH3Cl
 -----
 Symbolic Z-matrix:
 Charge =  0 Multiplicity = 1

 SCF Done:  E(RB3LYP) =  -500.149287101     a.u. after    7 cycles
 SCF Done:  E(RB3LYP) =  -500.150597358     a.u. after    5 cycles
 SCF Done:  E(RB3LYP) =  -500.150694851     a.u. after    3 cycles
 SCF Done:  E(RB3LYP) =  -500.150711578     a.u. after    3 cycles
 Optimization completed.
    -- Stationary point found.
 Normal termination of Gaussian 16 at Sat Nov 13 00:29:14 2021.

 ----------------------------------------------------------------------
 #N Geom=AllCheck Guess=TCheck SCRF=Check GenChk RB3LYP/6-311G(d,p) Fre
 q
 ----------------------------------------------------------------------

 Structure from the checkpoint file:  "ch3cl.chk"
 -----
 CH3Cl
 -----
 Charge =  0 Multiplicity = 1

                         Standard orientation:
 ---------------------------------------------------------------------
 Center     Atomic      Atomic             Coordinates (Angstroms)
 Number     Number       Type             X           Y           Z
 ---------------------------------------------------------------------
      1          6           0       -0.000000    0.000000   -1.141989
      2          1           0       -0.000000    1.032735   -1.481908
      3          1           0        0.894375   -0.516368   -1.481908
      4          1           0       -0.894375   -0.516368   -1.481908
      5         17           0        0.000000   -0.000000    0.664568
 ---------------------------------------------------------------------

 SCF Done:  E(RB3LYP) =  -500.150711625     a.u. after    2 cycles

 The electronic state is 1-A1.
 Alpha  occ. eigenvalues -- -101.54504 -10.23369  -9.45891  -7.22373  -7.21359
 Alpha  occ. eigenvalues --   -7.21359  -0.85553  -0.68668  -0.45870  -0.45870
 Alpha  occ. eigenvalues --   -0.41825  -0.30467  -0.30467
 Alpha virt. eigenvalues --    0.00771   0.05198   0.09552   0.09552   0.25432
 Alpha virt. eigenvalues --    0.27955   0.27955   0.30636   0.30636   0.34524
 Alpha virt. eigenvalues --    0.49518   0.55443   0.55443   0.69675   0.79924

 Mulliken charges:
               1
     1  C   -0.353173
     2  H    0.162023
     3  H    0.162023
     4  H    0.162023
     5  Cl  -0.132896
 Sum of Mulliken charges =   0.00000

 Dipole moment (field-independent basis, Debye):
    X=             -0.0000    Y=              0.0000    Z=             -2.1300  Tot=              2.1300
 Quadrupole moment (field-independent basis, Debye-Ang):
   XX=            -20.2563   YY=            -20.2563   ZZ=            -18.5001
   XY=             -0.0000   XZ=             -0.0000   YZ=              0.0000

  Exact polarizability:  16.381  -0.000  16.381   0.000   0.000  30.848
 Approx polarizability:  21.198  -0.000  21.198   0.000   0.000  41.453

                      1                      2                      3
                     A1                      E                      E
 Frequencies --    706.3273              1032.2780              1032.2784
 Red. masses --      7.3992                 1.1671                 1.1671
 Frc consts  --      2.1749                 0.7328                 0.7328
 IR Inten    --     30.6620                 6.3806                 6.3806

                      4                      5                      6
                     A1                      E                      E
 Frequencies --   1389.1107              1479.7043              1479.7043
 Red. masses --      1.1276                 1.0553                 1.0553
 Frc consts  --      1.2820                 1.3613                 1.3613
 IR Inten    --     16.8137                 6.3308                 6.3305

                      7                      8                      9
                     A1                      E                      E
 Frequencies --   3070.2677              3168.8013              3168.8014
 Red. masses --      1.0263                 1.1093                 1.1093
 Frc consts  --      5.6998                 6.5629                 6.5629
 IR Inten    --     25.0854                 7.1742                 7.1746

 - Thermochemistry -
 -------------------
 Temperature   298.150 Kelvin.  Pressure   1.00000 Atm.
 Atom     1 has atomic number  6 and mass  12.00000

 Molecular mass:    49.99233 amu.
 Principal axes and moments of inertia in atomic units:
                           1         2         3
     Eigenvalues --    11.51548 138.68098 138.68098
           X            0.00000   0.72146   0.69245
           Y           -0.00000  -0.69245   0.72146
           Z            1.00000  -0.00000   0.00000
 This molecule is a prolate symmetric top.
 Rotational symmetry number  3.
 Rotational temperatures (Kelvin)      7.52152     0.62456     0.62456
 Rotational constants (GHZ):         156.72309    13.01362    13.01362
 Zero-point vibrational energy      98855.0 (Joules/Mol)
                                   23.62692 (Kcal/Mol)
 Vibrational temperatures:   1016.25  1485.22  1485.22  1998.62  2128.96
          (Kelvin)           2128.96  4417.43  4559.20  4559.20

 Zero-point correction=                           0.037652 (Hartree/Particle)
 Thermal correction to Energy=                    0.040678
 Thermal correction to Enthalpy=                  0.041622
 Thermal correction to Gibbs Free Energy=         0.015011
 Sum of electronic and zero-point Energies=           -500.113060
 Sum of electronic and thermal Energies=              -500.110034
 Sum of electronic and thermal Enthalpies=            -500.109089
 Sum of electronic and thermal Free Energies=         -500.135700

                     E (Thermal)             CV                S
                      KCal/Mol        Cal/Mol-Kelvin    Cal/Mol-Kelvin
 Total                   25.526              7.736             56.008
 Electronic               0.000              0.000              0.000
 Translational            0.889              2.981             37.651
 Rotational               0.889              2.981             17.849
 Vibrational             23.748              1.775              0.507

 Optimization completed.
    -- Stationary point found.
 Normal termination of Gaussian 16 at Sat Nov 13 00:29:29 2021.
