 Gaussian 16, Revision B.01,
 Gaussian 16:  EM64L-G16RevB.01 20-Dec-2017

 ----------------------------------------------
 # opt=maxcycles=2048 freq=noraman b3lyp/6-311g
 ----------------------------------------------

 --------
 H2_6311G
 --------
 Symbolic Z-matrix:
 Charge =  0 Multiplicity = 1

 SCF Done:  E(RB3LYP) =  -1.15815515421     A.U. after    6 cycles
 SCF Done:  E(RB3LYP) =  -1.17638583930     A.U. after    6 cycles
 SCF Done:  E(RB3LYP) =  -1.17663101686     A.U. after    4 cycles
 SCF Done:  E(RB3LYP) =  -1.17663199413     A.U. after    4 cycles
 Optimization completed.
    -- Stationary point found.
 Normal termination of Gaussian 16 at Sun Nov 14 01:39:24 2021.

 ------------------------------------------------------------------
 #N Geom=AllCheck Guess=TCheck SCRF=Check GenChk RB3LYP/6-311G Freq
 ------------------------------------------------------------------

 Structure from the checkpoint file:  "h2_6311g.chk"
 --------
 H2_6311G
 --------
 Charge =  0 Multiplicity = 1

                         Standard orientation:
 ---------------------------------------------------------------------
 Center     Atomic      Atomic             Coordinates (Angstroms)
 Number     Number       Type             X           Y           Z
 ---------------------------------------------------------------------
      1          1           0        0.000000   -0.000000    0.370949
      2          1           0        0.000000    0.000000   -0.370949
 ---------------------------------------------------------------------

 SCF Done:  E(RB3LYP) =  -1.17663199413     A.U. after    1 cycles

 The electronic state is 1-SGG.
 Alpha  occ. eigenvalues --   -0.43696
 Alpha virt. eigenvalues --    0.05893   0.19623   0.47511   2.10742   2.38592

 Mulliken charges:
               1
     1  H   -0.000000
     2  H   -0.000000
 Sum of Mulliken charges =  -0.00000

 Dipole moment (field-independent basis, Debye):
    X=             -0.0000    Y=              0.0000    Z=             -0.0000  Tot=              0.0000
 Quadrupole moment (field-independent basis, Debye-Ang):
   XX=             -2.0650   YY=             -2.0650   ZZ=             -1.6487
   XY=              0.0000   XZ=             -0.0000   YZ=             -0.0000

  Exact polarizability:   0.000  -0.000   0.000   0.000  -0.000   6.868
 Approx polarizability:   0.000   0.000   0.000  -0.000  -0.000   8.328

                      1
                     SGG
 Frequencies --   4394.0063
 Red. masses --      1.0078
 Frc consts  --     11.4645
 IR Inten    --      0.0000

 - Thermochemistry -
 -------------------
 Temperature   298.150 Kelvin.  Pressure   1.00000 Atm.
 Atom     1 has atomic number  1 and mass   1.00783

 Molecular mass:     2.01565 amu.
 Principal axes and moments of inertia in atomic units:
                           1         2         3
     Eigenvalues --    -0.00000   0.99047   0.99047
           X           -0.00000   0.02141   0.99977
           Y           -0.00000   0.99977  -0.02141
           Z            1.00000   0.00000   0.00000
 This molecule is a prolate symmetric top.
 Rotational symmetry number  2.
 Rotational temperature (Kelvin)     87.44722
 Rotational constant (GHZ):        1822.104315
 Zero-point vibrational energy      26282.0 (Joules/Mol)
                                    6.28155 (Kcal/Mol)
 Vibrational temperatures:   6322.00
          (Kelvin)

 Zero-point correction=                           0.010010 (Hartree/Particle)
 Thermal correction to Energy=                    0.012371
 Thermal correction to Enthalpy=                  0.013315
 Thermal correction to Gibbs Free Energy=        -0.001475
 Sum of electronic and zero-point Energies=             -1.166622
 Sum of electronic and thermal Energies=                -1.164261
 Sum of electronic and thermal Enthalpies=              -1.163317
 Sum of electronic and thermal Free Energies=           -1.178107

                     E (Thermal)             CV                S
                      KCal/Mol        Cal/Mol-Kelvin    Cal/Mol-Kelvin
 Total                    7.763              4.968             31.127
 Electronic               0.000              0.000              0.000
 Translational            0.889              2.981             28.080
 Rotational               0.592              1.987              3.047
 Vibrational              6.282              0.000              0.000

 Optimization completed.
    -- Stationary point found.
 Normal termination of Gaussian 16 at Sun Nov 14 01:39:26 2021.
