 Gaussian 16, Revision B.01,
 Gaussian 16:  EM64L-G16RevB.01 20-Dec-2017

 ---------------------------------------------------
 # opt=maxcycles=2048 freq=noraman b3lyp/6-311g(d,p)
 ---------------------------------------------------

 -----------
 H2_6311G_dp
 -----------
 Symbolic Z-matrix:
 Charge =  0 Multiplicity = 1

 SCF Done:  E(RB3LYP) =  -1.16030191082     A.U. after    6 cycles
 SCF Done:  E(RB3LYP) =  -1.17933728186     A.U. after    7 cycles
 SCF Done:  E(RB3LYP) =  -1.17957014591     A.U. after    4 cycles
 SCF Done:  E(RB3LYP) =  -1.17957105539     A.U. after    4 cycles
 Optimization completed.
    -- Stationary point found.
 Normal termination of Gaussian 16 at Sun Nov 14 01:39:33 2021.

 ----------------------------------------------------------------------
 #N Geom=AllCheck Guess=TCheck SCRF=Check GenChk RB3LYP/6-311G(d,p) Fre
 q
 ----------------------------------------------------------------------

 Structure from the checkpoint file:  "h2_6311g_dp.chk"
 -----------
 H2_6311G_dp
 -----------
 Charge =  0 Multiplicity = 1

                         Standard orientation:
 ---------------------------------------------------------------------
 Center     Atomic      Atomic             Coordinates (Angstroms)
 Number     Number       Type             X           Y           Z
 ---------------------------------------------------------------------
      1          1           0        0.000000    0.000000    0.372086
      2          1           0        0.000000    0.000000   -0.372086
 ---------------------------------------------------------------------

 SCF Done:  E(RB3LYP) =  -1.17957105539     A.U. after    1 cycles

 The electronic state is 1-SGG.
 Alpha  occ. eigenvalues --   -0.43394
 Alpha virt. eigenvalues --    0.05739   0.19694   0.46982   1.08461   1.08461
 Alpha virt. eigenvalues --    1.55107   1.82672   1.82672   1.94584   2.37713
 Alpha virt. eigenvalues --    3.31099

 Mulliken charges:
               1
     1  H   -0.000000
     2  H   -0.000000
 Sum of Mulliken charges =  -0.00000

 Dipole moment (field-independent basis, Debye):
    X=             -0.0000    Y=             -0.0000    Z=              0.0000  Tot=              0.0000
 Quadrupole moment (field-independent basis, Debye-Ang):
   XX=             -2.1052   YY=             -2.1052   ZZ=             -1.5483
   XY=             -0.0000   XZ=             -0.0000   YZ=              0.0000

  Exact polarizability:   1.096  -0.000   1.096  -0.000   0.000   6.897
 Approx polarizability:   1.162  -0.000   1.162  -0.000   0.000   8.197

                      1
                     SGG
 Frequencies --   4419.2078
 Red. masses --      1.0078
 Frc consts  --     11.5964
 IR Inten    --      0.0000

 - Thermochemistry -
 -------------------
 Temperature   298.150 Kelvin.  Pressure   1.00000 Atm.
 Atom     1 has atomic number  1 and mass   1.00783

 Molecular mass:     2.01565 amu.
 Principal axes and moments of inertia in atomic units:
                           1         2         3
     Eigenvalues --     0.00000   0.99655   0.99655
           X           -0.00000  -0.36639   0.93046
           Y            0.00000   0.93046   0.36639
           Z            1.00000  -0.00000   0.00000
 This molecule is a prolate symmetric top.
 Rotational symmetry number  2.
 Rotational temperature (Kelvin)     86.91351
 Rotational constant (GHZ):        1810.983687
 Zero-point vibrational energy      26432.7 (Joules/Mol)
                                    6.31757 (Kcal/Mol)
 Vibrational temperatures:   6358.25
          (Kelvin)

 Zero-point correction=                           0.010068 (Hartree/Particle)
 Thermal correction to Energy=                    0.012428
 Thermal correction to Enthalpy=                  0.013372
 Thermal correction to Gibbs Free Energy=        -0.001423
 Sum of electronic and zero-point Energies=             -1.169503
 Sum of electronic and thermal Energies=                -1.167143
 Sum of electronic and thermal Enthalpies=              -1.166199
 Sum of electronic and thermal Free Energies=           -1.180994

                     E (Thermal)             CV                S
                      KCal/Mol        Cal/Mol-Kelvin    Cal/Mol-Kelvin
 Total                    7.799              4.968             31.140
 Electronic               0.000              0.000              0.000
 Translational            0.889              2.981             28.080
 Rotational               0.592              1.987              3.059
 Vibrational              6.318              0.000              0.000

 Optimization completed.
    -- Stationary point found.
 Normal termination of Gaussian 16 at Sun Nov 14 01:39:35 2021.
